LAMMPS (illustrative sample)
Step Temp PotEng KinEng TotEng Press Volume
0 300.0 -1000.0 50.0 -950.0 1.2 4000.0
100 301.2 -999.8 49.7 -950.1 1.5 4000.0
200 299.7 -1000.2 50.1 -950.1 0.8 4000.0
300 300.4 -999.9 49.8 -950.1 1.1 4000.0
400 300.1 -1000.1 50.0 -950.1 1.0 4000.0
500 300.3 -1000.0 49.9 -950.1 1.3 4000.0
Loop time of 0.5 on 1 procs for 500 steps with 4000 atoms

